 &FCI NORB=  8,NELEC= 8,MS2= 0,
  ORBSYM=1,1,2,3,-5,5,6,7,
  ISYM=1
1 2 3 5   hf_up
1 2 3 5   hf_dn
 &END
  5.258280512278E-01   1   1   1   1
  7.811518336800E-02   2   1   1   1
  6.304434661891E-02   2   1   2   1
  4.444907658150E-01   2   2   1   1
  7.209247647080E-03   2   2   2   1
  4.797051816159E-01   2   2   2   2
  4.678485135572E-01   3   3   1   1
  3.028385690365E-02   3   3   2   1
  4.296623898841E-01   3   3   2   2
  4.704388875708E-01   3   3   3   3
  4.678485135572E-01   4   4   1   1
  3.028385690365E-02   4   4   2   1
  4.296623898841E-01   4   4   2   2
  4.337579053662E-01   4   4   3   3
  4.704388875708E-01   4   4   4   4
  4.242609073934E-01   5   5   1   1
 -8.057059512354E-03   5   5   2   1
  4.505461685455E-01   5   5   2   2
  4.288947201756E-01   5   5   3   3
  4.288947201756E-01   5   5   4   4
  4.439715786902E-01   5   5   5   5
  6.411218381233E-02   6   5   1   1
  4.895045781205E-02   6   5   2   1
 -1.329221442153E-02   6   5   2   2
  3.442152799562E-02   6   5   3   3
  3.442152799562E-02   6   5   4   4
 -8.382613690383E-03   6   5   5   5
  5.400274917062E-02   6   5   6   5
  5.373835153309E-01   6   6   1   1
  6.952291512499E-02   6   6   2   1
  4.879480118782E-01   6   6   2   2
  4.826572165050E-01   6   6   3   3
  4.826572165050E-01   6   6   4   4
  4.562575664036E-01   6   6   5   5
  5.072426301872E-02   6   6   6   5
  5.858509933286E-01   6   6   6   6
  4.643669563734E-01   7   7   1   1
  1.992834756796E-02   7   7   2   1
  4.385109826410E-01   7   7   2   2
  4.761626375502E-01   7   7   3   3
  4.383995829740E-01   7   7   4   4
  4.405726441614E-01   7   7   5   5
  2.781492704373E-02   7   7   6   5
  4.851852703400E-01   7   7   6   6
  4.861444245881E-01   7   7   7   7
  4.643669563734E-01   8   8   1   1
  1.992834756796E-02   8   8   2   1
  4.385109826410E-01   8   8   2   2
  4.383995829740E-01   8   8   3   3
  4.761626375502E-01   8   8   4   4
  4.405726441614E-01   8   8   5   5
  2.781492704373E-02   8   8   6   5
  4.851852703400E-01   8   8   6   6
  4.459447506794E-01   8   8   7   7
  4.861444245881E-01   8   8   8   8
  7.306956652165E-02   3   1   3   1
 -9.234321510341E-03   3   2   3   1
  2.285174970534E-02   3   2   3   2
  6.569721581256E-02   7   5   3   1
 -2.431862213798E-02   7   5   3   2
  7.137522140401E-02   7   5   7   5
  3.445693428913E-02   7   6   3   1
  1.033569374501E-02   7   6   3   2
  2.135839066409E-02   7   6   7   5
  2.975387906844E-02   7   6   7   6
  7.306956652165E-02   4   1   4   1
 -9.234321510341E-03   4   2   4   1
  2.285174970534E-02   4   2   4   2
  6.569721581256E-02   8   5   4   1
 -2.431862213798E-02   8   5   4   2
  7.137522140401E-02   8   5   8   5
  3.445693428913E-02   8   6   4   1
  1.033569374501E-02   8   6   4   2
  2.135839066409E-02   8   6   8   5
  2.975387906844E-02   8   6   8   6
  1.834049109914E-02   4   3   4   3
  1.888152728732E-02   8   7   4   3
  2.009983691798E-02   8   7   8   7
  1.060065690972E-01   5   1   5   1
 -9.964702705453E-02   5   2   5   1
  1.458609730555E-01   5   2   5   2
  5.932689828809E-02   6   1   5   1
 -7.938558045253E-03   6   1   5   2
  8.500374902798E-02   6   1   6   1
  1.049244991750E-01   6   2   5   1
 -1.133549661296E-01   6   2   5   2
  5.865108187457E-02   6   2   6   1
  1.308104596070E-01   6   2   6   2
  1.367288538064E-01   7   3   5   1
 -1.235444106707E-01   7   3   5   2
  7.779910825466E-02   7   3   6   1
  1.282064023217E-01   7   3   6   2
  1.988663878132E-01   7   3   7   3
  1.367288538064E-01   8   4   5   1
 -1.235444106707E-01   8   4   5   2
  7.779910825466E-02   8   4   6   1
  1.282064023217E-01   8   4   6   2
  1.638166036726E-01   8   4   7   3
  1.988663878132E-01   8   4   8   4
  5.497487103397E-02   5   3   5   3
  1.615818308444E-02   6   3   5   3
  2.503571071691E-02   6   3   6   3
  4.961797555646E-02   7   1   5   3
  2.362899138907E-02   7   1   6   3
  4.883957767102E-02   7   1   7   1
 -2.740418694465E-02   7   2   5   3
  7.010299588644E-03   7   2   6   3
 -1.799453101204E-02   7   2   7   1
  2.488485676414E-02   7   2   7   2
  5.497487103397E-02   5   4   5   4
  1.615818308444E-02   6   4   5   4
  2.503571071691E-02   6   4   6   4
  4.961797555646E-02   8   1   5   4
  2.362899138907E-02   8   1   6   4
  4.883957767102E-02   8   1   8   1
 -2.740418694465E-02   8   2   5   4
  7.010299588644E-03   8   2   6   4
 -1.799453101204E-02   8   2   8   1
  2.488485676414E-02   8   2   8   2
  1.752489204924E-02   7   4   7   4
  1.752489206949E-02   8   3   7   4
  1.752489204924E-02   8   3   8   3
 -3.757848414452E+00   1   1   0   0
 -2.386593743625E-01   2   1   0   0
 -3.175312295587E+00   2   2   0   0
 -3.191334390826E+00   3   3   0   0
 -3.191334390826E+00   4   4   0   0
 -3.270918520216E+00   5   5   0   0
 -1.999702655646E-01   6   5   0   0
 -3.126234322877E+00   6   6   0   0
 -3.083927784696E+00   7   7   0   0
 -3.083927784696E+00   8   8   0   0
 -5.912435644104E+01   0   0   0   0
